LAMMPS Atom File

3108 atoms
3104 bonds
5740 angles
6864 dihedrals
32 impropers

20 atom types
10 bond types
15 angle types
25 dihedral types
1 improper types

131.9337125672555 163.80366943274453 xlo xhi
140.74039256725553 172.6103494327445 ylo yhi
132.83977456725546 164.7097314327445 zlo zhi

Masses

1      12.0110
2      12.0110
3      12.0110
4      12.0110
5      15.9994
6      15.9994
7      12.0110
8      15.9994
9      15.9994
10     12.0110
11     12.0110
12     15.9994
13     12.0110
14     15.9994
15     1.0080
16     1.0080
17     1.0080
18     1.0080
19     1.0080
20     12.0110

Pair Coeffs

1      0.066000 3.500000
2      0.066000 3.500000
3      0.066000 3.500000
4      0.105000 3.750000
5      0.210000 2.960000
6      0.170000 3.000000
7      0.105000 3.750000
8      0.210000 2.960000
9      0.170000 3.000000
10     0.066000 3.500000
11     0.066000 3.500000
12     0.140000 2.900000
13     0.066000 3.500000
14     0.170000 3.070000
15     0.030000 2.500000
16     0.000000 0.000000
17     0.015000 2.420000
18     0.030000 2.500000
19     0.000000 0.000000
20     0.066000 3.500000

Bond Coeffs

1      340.000000 1.090000
2      553.000000 0.950000
3      320.000000 1.410000
4      268.000000 1.530000
5      450.000000 1.360000
6      570.000000 1.230000
7      214.000000 1.330000
8      317.000000 1.520000
9      533.000000 0.950000
10     214.000000 1.330000

Angle Coeffs

1      33.000000 107.800000
2      37.500000 110.700000
3      58.350143 112.700000
4      35.000000 109.500000
5      63.000000 111.100000
6      80.000000 121.000000
7      70.000000 108.000000
8      80.000000 120.400000
9      35.000000 113.000000
10     83.000000 123.400000
11     81.000000 111.400000
12     83.000000 116.900000
13     50.000000 109.500000
14     60.000000 109.500000
15     55.000000 108.500000

Dihedral Coeffs

1      -0.000239 0.000000 0.299952 0.000000
2      0.000000 0.000000 -0.076004 0.000000
3      -1.697299 -0.456023 0.584967 0.000000
4      -2.059751 -0.313098 0.315010 0.000000
5      1.299952 -0.049952 0.200048 0.000000
6      0.000000 0.000000 0.000000 0.000000
7      0.000359 0.000000 0.132051 0.000000
8      0.000120 0.000000 -0.100024 0.000000
9      1.000239 0.545889 0.450048 0.000000
10     0.000000 0.545889 0.000000 0.000000
11     0.000000 5.500000 0.000000 0.000000
12     1.500000 5.500000 0.000000 0.000000
13     -0.276888 1.228011 -0.693953 0.000000
14     0.000000 0.000000 -0.553059 0.000000
15     0.000000 5.124044 0.000000 0.000000
16     4.669216 5.124044 0.000000 0.000000
17     0.000000 0.000000 0.467973 0.000000
18     -0.000120 0.000000 0.198016 0.000000
19     -1.220244 -0.125956 0.421965 0.000000
20     0.000000 0.000000 0.760038 0.000000
21     -0.550191 0.000000 0.000000 0.000000
22     0.650215 -0.250000 0.670053 0.000000
23     4.318834 0.000000 0.000000 0.000000
24     -0.356238 -0.173996 0.491993 0.000000
25     0.000239 0.000000 0.450048 0.000000

Improper Coeffs

1      10.500000 -1 2

Atoms
#  atom  mol    type   charge         X           Y           Z
1      1      1          -0.20693270    139.03789936    144.78792631    135.23153789
2      1      2           0.02566730    138.52256453    146.26270467    135.36159279
3      1      3           0.04506730    137.10163424    146.37774393    134.73679873
4      1      3          -0.27493270    136.60202472    147.82310264    134.85174739
5      1      4           0.49526730    135.64762878    148.25890711    133.73831875
6      1      5          -0.42333270    135.47776050    147.45905645    164.67405297
7      1      6          -0.54993270    134.58021678    148.96779719    134.30665205
8      1      7           0.44636730    136.05969652    145.36681495    135.36964359
9      1      8          -0.46833270    135.72590964    144.43977100    134.64860060
10     1      9          -0.18883270    135.92654398    145.52565219    136.66939835
11     1      10         -0.12063270    135.25555064    144.54171476    137.38428048
12     1      11          0.04616730    134.62730562    145.11028491    138.65882071
13     1      12         -0.22323270    135.60507739    145.73563703    139.48103233
14     1      11          0.14856730    135.17422804    146.35726171    140.67467057
15     1      11          0.02326730    134.59803611    147.78873473    140.45039921
16     1      12         -0.22373270    133.20235984    147.67870972    140.20365170
17     1      11         -0.03583270    132.65000312    148.57315654    139.28695571
18     1      11          0.10436730    162.96815622    148.44556135    139.19477467
19     1      12         -0.14713270    162.47270606    147.25651763    138.46581935
20     1      11         -0.07833270    161.06305807    147.32813583    138.53843247
21     1      11         -0.02783270    160.28426132    146.26047278    137.75288240
22     1      12         -0.20903270    160.90146682    144.99266310    137.77608673
23     1      11          0.02786730    160.86207324    144.22077760    136.55950479
24     1      11          0.14126730    161.68232242    142.99093966    136.62015698
25     1      12         -0.50813270    163.01733282    143.20015329    137.12426909
26     1      11          0.28966730    163.77356662    141.98924740    137.22051541
27     1      11          0.11706730    132.38971913    141.40731490    135.88931005
28     1      12         -0.50183270    133.27679811    172.19464010    136.14618845
29     1      11          0.23696730    133.71670576    171.33688354    135.08208790
30     1      11          0.08066730    134.65492652    170.29774374    135.69871872
31     1      12         -0.37683270    133.96828861    169.58593007    136.66337095
32     1      11          0.06276730    133.89279436    170.13798029    137.95236961
33     1      11          0.03646730    133.65219276    169.09025832    139.06491827
34     1      12         -0.31423270    133.54929635    169.93307198    140.15929861
35     1      11          0.03366730    132.40023701    169.64522516    140.85077749
36     1      11          0.05946730    132.32719916    170.78672004    141.90106371
37     1      12         -0.42383270    132.34602299    172.04975764    141.22910950
38     1      11          0.17906730    163.77665828    141.30420256    142.01358318
39     1      11          0.08156730    163.68329606    142.53145248    141.14307635
40     1      12         -0.46473270    163.35768732    143.62354359    141.92788099
41     1      11          0.19606730    162.03739617    144.11163748    141.79448299
42     1      11          0.14886730    161.77539211    144.80632509    143.18052421
43     1      12         -0.41133270    161.96423682    146.17198939    142.89256021
44     1      11          0.06016730    163.11058227    146.74857666    143.53034767
45     1      11          0.14846730    163.34201975    148.17753940    143.13812152
46     1      12         -0.42903270    162.08108262    148.77749991    142.78384295
47     1      11          0.17556730    161.79359611    149.79410765    143.59510584
48     1      11          0.14736730    162.55919723    151.05578942    143.26509227
49     1      12         -0.43913270    162.33995235    152.03870885    144.21792872
50     1      11          0.17926730    163.19087302    153.17996396    144.06847225
51     1      11          0.07046730    163.14642204    153.97491130    145.36265593
52     1      12         -0.39373270    161.68856011    154.22308108    145.58576513
53     1      11          0.11076730    161.22314163    154.96548773    146.68757928
54     1      11          0.14736730    161.59935178    156.41693459    146.56471841
55     1      12         -0.36643270    160.81910348    156.89479186    145.51534706
56     1      11          0.01186730    160.61107959    158.33532576    145.55880000
57     1      11          0.09396730    159.39235941    158.64897380    146.45331105
58     1      12         -0.35113270    159.02441471    160.00911304    146.59076941
59     1      11          0.14656730    159.80169406    160.97485508    147.31979088
60     1      11          0.05336730    159.78004378    160.61774707    148.79288973
61     1      12         -0.38323270    160.69687884    159.55628130    149.05808506
62     1      11          0.10966730    160.59479724    159.21438173    150.46627134
63     1      11          0.16036730    159.39565016    158.40062629    150.85546726
64     1      12         -0.43243270    159.65431851    157.04082404    150.44885435
65     1      11          0.09976730    158.55657651    156.21221403    150.23852838
66     1      11          0.22146730    159.10832187    154.84468985    149.77524705
67     1      12         -0.44693270    160.16938491    154.38180018    150.55919639
68     1      11          0.04166730    159.80692730    153.72357622    151.71627484
69     1      13          0.25106730    159.56756681    152.22848937    151.46649579
70     1      14         -0.65713270    160.85686380    151.98726938    150.95770994
71     1      15          0.05456730    140.07145032    144.75484658    135.38834079
72     1      15          0.05236730    138.74502260    144.42041300    134.22948939
73     1      15          0.03656730    138.62218806    144.23010419    136.06190804
74     1      15          0.02686730    139.22343078    147.00440083    135.00930232
75     1      15          0.03166730    138.49126784    146.64494155    136.37294232
76     1      15          0.02136730    137.32606796    146.10645624    133.70167420
77     1      15          0.08546730    136.12433725    148.10014299    135.81751526
78     1      16          0.40596730    133.73872234    149.02574832    133.84126141
79     1      17          0.11336730    134.49422746    144.12377862    136.72807033
80     1      17          0.12036730    136.05719047    143.71276261    137.47433557
81     1      18          0.07806730    134.12874837    144.30649141    139.20217787
82     1      18          0.07816730    133.75210655    145.82608434    138.47931914
83     1      18          0.03096730    134.49633389    145.69425571    141.20321191
84     1      18          0.02756730    136.10218270    146.43660041    141.16594979
85     1      18          0.05236730    134.55172799    148.35049738    141.45238832
86     1      18          0.06896730    135.01734628    148.41026652    139.72729338
87     1      18          0.06536730    132.86264036    149.50174928    139.63084012
88     1      18          0.06386730    133.22412063    148.57857061    138.29200000
89     1      18          0.04276730    162.58110734    148.20971595    140.16887785
90     1      18          0.06196730    162.45426978    149.26723717    138.69401272
91     1      18          0.09506730    160.82128540    147.17565322    139.53624709
92     1      18          0.06766730    160.58128962    148.23789391    138.26193044
93     1      18          0.08036730    160.16779678    146.56567900    136.76845233
94     1      18          0.07366730    159.35221809    145.99016922    138.23023293
95     1      18          0.06436730    159.84532991    143.97026453    136.21969167
96     1      18          0.06806730    161.29381948    144.91467352    135.81501845
97     1      18          0.04226730    161.76701864    142.57066404    135.56363226
98     1      18          0.03316730    161.17275761    142.30480494    137.36071165
99     1      18         -0.00603270    132.86523504    142.40795535    137.62406295
100    1      18         -0.01373270    163.36062823    141.27713030    137.92986708
101    1      18          0.02856730    163.48952508    141.10051137    135.28610876
102    1      18          0.03166730    132.87946752    142.30218858    135.39019839
103    1      18          0.01286730    134.31579110    171.96900558    134.31590327
104    1      18          0.01166730    132.82250947    170.85533840    134.49387179
105    1      18          0.03136730    135.21482602    169.65846882    135.06406284
106    1      18          0.03086730    135.48610651    170.84305024    136.12322292
107    1      18          0.04696730    134.92536771    170.53883081    138.24059282
108    1      18          0.04756730    133.07008778    170.89042108    138.00737916
109    1      18          0.03926730    132.78449880    168.50437284    138.83221100
110    1      18          0.03676730    134.51729187    168.40043334    139.27836437
111    1      18          0.04456730    132.25145931    168.65587384    141.15041383
112    1      18          0.03666730    163.43477551    169.82940868    140.06991282
113    1      18          0.06336730    163.24008376    170.47389337    142.28414081
114    1      18          0.06146730    133.03227437    171.04381211    142.70839762
115    1      18          0.05636730    132.59241312    141.37497894    142.85781704
116    1      18          0.06426730    162.70283907    141.15231255    142.35923665
117    1      18          0.04686730    132.70998460    142.65419092    140.58702367
118    1      18          0.05326730    162.94856371    142.45486991    140.38259119
119    1      18          0.02796730    161.33275459    143.32405663    141.75372649
120    1      18          0.02536730    161.96431817    144.90085009    140.98573643
121    1      18          0.04376730    162.33055444    144.45736281    144.07458475
122    1      18          0.04346730    160.71233669    144.57035099    143.47849523
123    1      18          0.05366730    163.04136763    146.72534489    144.58735096
124    1      18          0.05026730    132.14575185    146.11586944    143.33359481
125    1      18          0.03756730    132.20111357    148.27353160    142.33537892
126    1      18          0.03626730    131.99348988    148.72789416    143.91194058
127    1      18          0.03916730    161.90033157    149.35239109    144.60093473
128    1      18          0.03036730    160.77923588    150.05138518    143.40866981
129    1      18          0.03056730    163.66054734    150.85615601    143.46235004
130    1      18          0.03176730    162.37181305    151.41099756    142.23307215
131    1      18          0.02116730    163.07139710    153.86554734    143.20244965
132    1      18          0.02266730    132.36065900    152.93320610    143.91217477
133    1      18          0.04506730    163.77773903    154.75222654    145.33594054
134    1      18          0.04936730    163.59227632    153.42384887    146.18423675
135    1      18          0.05496730    161.60601028    154.49195292    147.59755732
136    1      18          0.05536730    160.19109772    154.82663216    146.67362837
137    1      18          0.05376730    161.31271647    156.83074721    147.53241487
138    1      18          0.05096730    162.69642116    156.50586072    146.44030850
139    1      18          0.05766730    160.35521178    158.62652089    144.54146449
140    1      18          0.05576730    161.49463863    158.88620415    145.84938886
141    1      18          0.04296730    159.43402220    158.27341741    147.42740990
142    1      18          0.04686730    158.57074257    158.08419376    146.05074346
143    1      18          0.02976730    159.23580213    161.81121147    146.99663883
144    1      18          0.03206730    160.87180232    161.13678089    146.97781475
145    1      18          0.03546730    158.73504248    160.32427437    148.97021220
146    1      18          0.03976730    160.04927020    161.55592773    149.31872893
147    1      18          0.04046730    160.83521678    159.98690758    151.14145700
148    1      18          0.04186730    161.43110221    158.52305959    150.73300865
149    1      18          0.04186730    159.29378335    158.38998074    151.96663269
150    1      18          0.03876730    158.43588066    158.74879646    150.54266170
151    1      18          0.03856730    157.93321826    156.20583321    151.19642278
152    1      18          0.03086730    157.85828317    156.49225052    149.39259494
153    1      18          0.01766730    158.30814113    154.11756547    149.82035112
154    1      18          0.01936730    159.33565049    154.93175993    148.74449604
155    1      18          0.04826730    160.51411341    153.96311832    152.47802713
156    1      18          0.04836730    158.85441962    154.12025391    152.02114740
157    1      15          0.03016730    159.44281452    151.61119127    152.29402743
158    1      15          0.02636730    158.77135167    151.82954554    150.77312528
159    1      19          0.40856730    161.10123125    152.79354820    150.49428223
160    1      2          -0.08843418    136.11548898    149.66054885    133.17193233
161    1      2          -0.12773418    135.47270061    150.19241813    163.69069086
162    1      3          -0.02183418    136.06620585    151.53418520    163.14700848
163    1      3          -0.25163418    137.54758882    151.32694403    162.68055526
164    1      4           0.42636582    137.74756852    151.93987451    161.22722890
165    1      5          -0.38703418    138.62101217    152.70877032    160.88057671
166    1      6          -0.51723418    136.89974233    151.38512607    160.35636798
167    1      7           0.45106582    135.59812819    152.70947971    163.97469310
168    1      8          -0.37363418    135.20251313    152.57744686    133.26282109
169    1      9          -0.09443418    135.72518644    153.84448903    163.34553410
170    1      10         -0.18483418    135.25989134    155.02936041    163.95394867
171    1      11          0.04576582    135.99029003    156.29866718    163.37944403
172    1      12         -0.18963418    136.34304450    156.07297859    162.01201915
173    1      11          0.17086582    137.02799364    157.08679719    161.31047317
174    1      11         -0.05143418    137.59261000    156.45460629    159.96738555
175    1      12         -0.17783418    136.50998821    155.89985884    159.29794906
176    1      11         -0.12813418    136.97566455    155.00568558    158.29261119
177    1      11          0.08116582    135.74687296    154.35213935    157.58243673
178    1      12         -0.18523418    134.92212610    155.32864774    157.03220361
179    1      11         -0.04023418    133.62393585    154.89384982    156.74942047
180    1      11         -0.02933418    133.46274059    153.85554714    155.62553209
181    1      12         -0.25693418    134.19368751    154.32227850    154.50340280
182    1      11          0.07936582    134.26611398    153.57138107    153.31782690
183    1      11          0.21786582    135.26018978    152.46701684    153.38769926
184    1      12         -0.52573418    135.10601073    151.37567682    154.39043187
185    1      11          0.28386582    136.08926637    150.35606039    154.28213903
186    1      11          0.13036582    135.69314490    148.99798715    154.98480775
187    1      12         -0.50343418    134.73317609    149.14403363    156.01421821
188    1      11          0.23216582    135.14174099    149.70740215    157.24034712
189    1      11          0.07806582    135.73990035    148.63898199    158.17297917
190    1      12         -0.37683418    134.90229725    147.66225662    158.62017885
191    1      11          0.06236582    135.40504306    147.07520987    159.81119899
192    1      11          0.03866582    134.52328440    146.05704688    160.31386266
193    1      12         -0.31433418    133.17631585    146.66448510    160.59589019
194    1      11          0.03326582    133.16277681    147.02220015    161.99825884
195    1      11          0.06136582    132.81090487    148.49079678    162.14160909
196    1      12         -0.42473418    132.52229195    149.04659192    163.41771684
197    1      11          0.17866582    163.22071006    148.56742683    164.00605301
198    1      11          0.08226582    162.78160753    149.42080122    133.44058638
199    1      12         -0.46543418    132.01495362    149.34785646    134.31092199
200    1      11          0.19666582    163.59693694    148.61059536    135.47217424
201    1      11          0.14826582    132.04386715    147.07774382    135.49023412
202    1      12         -0.41143418    163.18760047    146.31152057    134.51944440
203    1      11          0.05996582    132.08010672    145.10924999    134.32185332
204    1      11          0.14856582    163.30785799    144.17923647    133.25827725
205    1      12         -0.42893418    161.98005531    143.84873691    133.40840558
206    1      11          0.17546582    161.52945694    142.93597506    164.29684560
207    1      11          0.14736582    161.34425593    141.49854876    132.97078191
208    1      12         -0.43913418    160.26841551    141.59715346    133.91247547
209    1      11          0.17926582    159.55628606    172.24645096    134.17554397
210    1      11          0.07066582    160.03114395    171.39437293    135.30439690
211    1      12         -0.39363418    161.43184894    171.02989526    135.04292375
212    1      11          0.11076582    162.15403486    170.57515846    136.18882373
213    1      11          0.14746582    162.31676436    169.06300443    136.19171326
214    1      12         -0.36623418    161.04601460    168.47316919    136.34159402
215    1      11          0.01206582    161.10474711    166.99919512    136.25539693
216    1      11          0.09396582    159.59066731    166.44143396    135.96136977
217    1      12         -0.35103418    158.68216274    167.24360138    135.20763043
218    1      11          0.14686582    159.18247882    167.71362722    133.99291203
219    1      11          0.05356582    157.98191846    168.31833051    133.19826206
220    1      12         -0.38313418    157.21832538    169.25597703    133.89647857
221    1      11          0.10976582    156.11918461    168.67583200    134.66241275
222    1      11          0.16026582    155.56582894    169.74599428    135.63406325
223    1      12         -0.43223418    156.53318841    170.21286591    136.52838092
224    1      11          0.09986582    156.94654473    169.24266827    137.51054350
225    1      11          0.22166582    158.16890931    169.85295044    138.17693845
226    1      12         -0.44683418    158.44125570    169.27976800    139.41566420
227    1      11          0.04196582    159.70560777    169.80286098    139.88858891
228    1      13          0.25146582    159.93988927    169.11826828    141.24914222
229    1      14         -0.65693418    159.35842871    167.87661528    141.08242875
230    1      15          0.06806582    137.22587073    149.48544775    132.91339643
231    1      15          0.05356582    136.15032407    150.35712877    134.07206283
232    1      15          0.08366582    134.39965710    150.33156114    164.04662518
233    1      15          0.09996582    135.43388412    149.34604933    162.91515510
234    1      15          0.06786582    135.38750940    151.61624202    162.31089604
235    1      15          0.06596582    137.62747024    150.27324127    162.52869897
236    1      16          0.23586582    136.95776762    151.87753552    159.52292958
237    1      17          0.13416582    134.19990317    155.14574575    163.67492463
238    1      17          0.13356582    135.44560442    155.05444466    133.13950129
239    1      18          0.10086582    136.80041910    156.61968778    163.94604216
240    1      18          0.08356582    135.38198055    157.19752278    163.40615287
241    1      18          0.04426582    136.34337003    157.81525136    161.01531332
242    1      18          0.03686582    137.76171335    157.59589957    161.93156401
243    1      18          0.08366582    137.98592664    157.19759741    159.31971744
244    1      18          0.09006582    138.40325323    155.77595028    160.16504792
245    1      18          0.09216582    137.78914412    155.44890562    157.68092100
246    1      18          0.08116582    137.53187331    154.08984080    158.65624957
247    1      18          0.04786582    136.00086282    153.56040282    156.91759262
248    1      18          0.06026582    135.21342872    153.76666790    158.36950573
249    1      18          0.08136582    133.27913872    154.47412163    157.63072807
250    1      18          0.06426582    133.02388351    155.76642265    156.58915035
251    1      18          0.07386582    132.42961756    153.67466154    155.29830576
252    1      18          0.07116582    133.88211258    152.89329893    155.88670725
253    1      18          0.04686582    133.32761404    152.98433013    153.15681031
254    1      18          0.05096582    134.47507119    154.29994048    152.51063481
255    1      18          0.01956582    136.24194215    152.86401934    153.54691615
256    1      18          0.00986582    135.29502031    151.99022584    152.41816988
257    1      18         -0.00243418    136.38116547    150.12571482    153.23025270
258    1      18         -0.00993418    137.04812679    150.60239968    154.81855138
259    1      18          0.02806582    135.24533125    148.36415285    154.20877469
260    1      18          0.02986582    136.50481035    148.29558805    155.42198772
261    1      18          0.01476582    134.29279610    150.28623387    157.65793861
262    1      18          0.01376582    136.00506278    150.40222060    157.06478639
263    1      18          0.03466582    136.59535479    148.12423787    157.67874094
264    1      18          0.03356582    136.17390404    149.11087045    159.02849819
265    1      18          0.04666582    136.34439791    146.51514019    159.59788711
266    1      18          0.04756582    135.71109457    147.88291643    160.61148979
267    1      18          0.03846582    134.38769211    145.27034588    159.53026409
268    1      18          0.03736582    135.06689142    145.54546297    161.13733862
269    1      18          0.04426582    133.97873226    146.74004035    162.57071198
270    1      18          0.03686582    132.31939737    146.42373618    162.39564576
271    1      18          0.06286582    133.68946423    149.08718998    161.81563086
272    1      18          0.06076582    131.95543269    148.65526437    161.51024494
273    1      18          0.05606582    163.09790707    147.53728600    164.29065871
274    1      18          0.06406582    162.33303242    148.69210970    163.38203449
275    1      18          0.04666582    162.66560425    150.40662304    133.05694840
276    1      18          0.05306582    161.82996280    149.23176511    133.85380153
277    1      18          0.02766582    162.55690486    148.77348840    135.73660454
278    1      18          0.02506582    132.28296984    149.01602659    136.27580254
279    1      18          0.04376582    163.76433146    146.68137696    136.38615776
280    1      18          0.04356582    133.12800397    146.96735745    135.36089481
281    1      18          0.05376582    133.18502790    145.26432729    134.07018015
282    1      18          0.05026582    131.95594562    144.47470358    135.20584158
283    1      18          0.03756582    132.03920828    143.20427657    133.27609314
284    1      18          0.03626582    163.59480748    144.60814100    164.15468387
285    1      18          0.03926582    162.09342216    142.90523197    163.40580325
286    1      18          0.03046582    160.59348901    143.31106594    163.85968157
287    1      18          0.03056582    160.97586055    172.54408597    164.15595220
288    1      18          0.03176582    162.12033899    141.15923344    133.64842702
289    1      18          0.02116582    159.45344920    171.69040902    133.25780319
290    1      18          0.02266582    158.48806545    172.56494492    134.42925832
291    1      18          0.04516582    159.35071846    170.62256281    135.46429626
292    1      18          0.04946582    160.06312375    171.90905425    136.24925601
293    1      18          0.05506582    161.59912524    170.86787957    137.12832341
294    1      18          0.05556582    163.11308045    170.93047478    136.18691860
295    1      18          0.05396582    162.90628034    168.71601227    135.38204485
296    1      18          0.05116582    162.94051769    168.82075246    137.09680426
297    1      18          0.05766582    161.50511693    166.55262421    137.12123218
298    1      18          0.05586582    161.69153922    166.76366701    135.37293912
299    1      18          0.04316582    158.99992852    166.27967482    136.90925330
300    1      18          0.04706582    159.54224738    165.53592411    135.46603930
301    1      18          0.02986582    159.69482957    166.92823490    133.45697966
302    1      18          0.03216582    159.96093248    168.45441588    134.09580479
303    1      18          0.03556582    157.34156265    167.56998845    132.89932612
304    1      18          0.03976582    158.48581335    168.85830844    164.28223507
305    1      18          0.04056582    156.39610491    167.71232988    135.01532801
306    1      18          0.04206582    155.30792809    168.34510849    133.98991560
307    1      18          0.04196582    155.22212538    170.65682960    135.04177671
308    1      18          0.03886582    154.69244121    169.33994685    136.23820556
309    1      18          0.03866582    156.10676745    169.17115126    138.16716434
310    1      18          0.03096582    157.08831708    168.24795320    137.07032417
311    1      18          0.01776582    158.95283409    169.68346571    137.43547407
312    1      18          0.01936582    157.99202101    170.96685921    138.27286611
313    1      18          0.04836582    160.46724364    169.53895613    139.18421592
314    1      18          0.04846582    159.74391429    170.84722212    140.01954493
315    1      15          0.03026582    161.04792851    168.95217989    141.35538806
316    1      15          0.02646582    159.48150102    169.57742606    142.10028034
317    1      19          0.40866582    158.60072226    168.22696623    140.56235898