LAMMPS Atom File

6080 atoms
5440 bonds
8800 angles
8000 dihedrals
160 impropers

20 atom types
8 bond types
15 angle types
25 dihedral types
1 improper types

99.66653842615284 178.4105055738488 xlo xhi
110.62801642615284 189.3719835738488 ylo yhi
110.62801642615284 189.3719835738488 zlo zhi

Masses

1      12.0110
2      12.0110
3      12.0110
4      12.0110
5      15.9994
6      15.9994
7      12.0110
8      15.9994
9      15.9994
10     12.0110
11     12.0110
12     15.9994
13     12.0110
14     15.9994
15     1.0080
16     1.0080
17     1.0080
18     1.0080
19     1.0080
20     12.0110
21     1.0080
22     1.0080

Pair Coeffs

1      0.066000 3.500000
2      0.066000 3.500000
3      0.066000 3.500000
4      0.105000 3.750000
5      0.210000 2.960000
6      0.170000 3.000000
7      0.105000 3.750000
8      0.210000 2.960000
9      0.170000 3.000000
10     0.066000 3.500000
11     0.066000 3.500000
12     0.140000 2.900000
13     0.066000 3.500000
14     0.170000 3.070000
15     0.030000 2.500000
16     0.000000 0.000000
17     0.015000 2.420000
18     0.030000 2.500000
19     0.000000 0.000000
20     0.066000 3.500000
21     0.030000 2.420000
22     0.030000 2.500000

Bond Coeffs

1      340.000000 1.090000
2      553.000000 0.950000
3      320.000000 1.410000
4      268.000000 1.530000
5      450.000000 1.360000
6      570.000000 1.230000
7      214.000000 1.330000
8      317.000000 1.520000
9      340.000000 1.090000
10     340.000000 1.090000

Angle Coeffs

1      33.000000 107.800000
2      37.500000 110.700000
3      58.350143 112.700000
4      35.000000 109.500000
5      63.000000 111.100000
6      80.000000 121.000000
7      70.000000 108.000000
8      80.000000 120.400000
9      35.000000 113.000000
10     83.000000 123.400000
11     81.000000 111.400000
12     83.000000 116.900000
13     50.000000 109.500000
14     60.000000 109.500000
15     55.000000 108.500000
16     35.000000 123.000000
17     40.000000 115.000000
18     37.500000 110.700000
19     33.000000 107.800000
20     37.500000 110.700000

Dihedral Coeffs

1      -0.000239 0.000000 0.299952 0.000000
2      0.000000 0.000000 -0.076004 0.000000
3      -1.697299 -0.456023 0.584967 0.000000
4      -2.059751 -0.313098 0.315010 0.000000
5      1.299952 -0.049952 0.200048 0.000000
6      0.000000 0.000000 0.000000 0.000000
7      0.000359 0.000000 0.132051 0.000000
8      0.000120 0.000000 -0.100024 0.000000
9      1.000239 0.545889 0.450048 0.000000
10     0.000000 0.545889 0.000000 0.000000
11     0.000000 5.500000 0.000000 0.000000
12     1.500000 5.500000 0.000000 0.000000
13     -0.276888 1.228011 -0.693953 0.000000
14     0.000000 0.000000 -0.553059 0.000000
15     0.000000 5.124044 0.000000 0.000000
16     4.669216 5.124044 0.000000 0.000000
17     0.000000 0.000000 0.467973 0.000000
18     -0.000120 0.000000 0.198016 0.000000
19     -1.220244 -0.125956 0.421965 0.000000
20     0.000000 0.000000 0.760038 0.000000
21     -0.550191 0.000000 0.000000 0.000000
22     0.650215 -0.250000 0.670053 0.000000
23     4.318834 0.000000 0.000000 0.000000
24     -0.356238 -0.173996 0.491993 0.000000
25     0.000239 0.000000 0.450048 0.000000
26     4.669216 5.124044 0.000000 0.000000
27     -0.000239 0.000000 0.299952 0.000000
28     0.000000 0.000000 0.467973 0.000000
29     -0.000239 0.000000 0.299952 0.000000
30     0.000000 0.000000 0.467973 0.000000

Improper Coeffs

1      10.500000 -1 2
2      10.500000 -1 2
3      10.500000 -1 2

Atoms
#  atom  mol    type   charge         X           Y           Z
1      1      3           0.04506730    174.46595158    113.59478384    146.36488336
2      1      7           0.44636730    173.77247403    113.28779266    147.13209178
3      1      8          -0.46833270    172.74518573    112.70020335    146.81681533
4      1      9          -0.18883270    174.16911596    113.37460243    148.47025617
5      1      10         -0.12063270    173.21237700    113.06145622    149.48528412
6      1      11          0.04616730    172.30611760    114.22407565    149.92306833
7      1      12         -0.22323270    172.84386016    115.07353809    150.10734766
8      1      12         -0.44693270    104.55494777    133.49352045    157.29970016
9      1      11          0.04166730    104.99509121    133.42600693    158.18955190
10     1      13          0.25106730    106.34517738    132.62049451    158.16712606
11     1      14         -0.65713270    106.86991047    132.40270148    159.37783858
12     1      17          0.11336730    172.60749471    112.25006002    149.01152009
13     1      17          0.12036730    173.59071042    112.71844367    150.43339313
14     1      18          0.07806730    171.83350041    113.94137741    150.82154572
15     1      18          0.07816730    171.55770750    114.38627310    149.29848629
16     1      18          0.04826730    104.95071601    134.41109932    158.55999465
17     1      18          0.04836730    104.27095684    132.91885137    158.78114186
18     1      15          0.03016730    106.26872806    131.67291827    157.63553117
19     1      15          0.02636730    107.09144762    133.06303466    157.52720694
20     1      19          0.40856730    107.40624922    131.60312132    159.37118426
21     1      3          -0.02183418     99.93948607    188.11761679    143.21649449
22     1      7           0.45106582    100.38218063    188.73189993    142.38692203
23     1      8          -0.37363418    100.71374834    111.17111242    142.57959008
24     1      9          -0.09443418    100.27304771    188.16135169    141.22131079
25     1      10         -0.18483418    100.73795255    188.87788754    140.05628551
26     1      11          0.04576582    102.23936787    188.53768404    139.71415837
27     1      12         -0.18963418    102.49466343    189.13384279    138.96836475
28     1      12         -0.44683418     99.48114894    180.85065356    126.39452391
29     1      11          0.04196582    100.26530754    180.78269115    127.08130452
30     1      13          0.25146582    178.35225921    180.41394042    128.39102234
31     1      14         -0.65693418    177.29238322    181.29979713    128.64426137
32     1      17          0.13416582     99.95794227    188.91345320    139.34766508
33     1      17          0.13356582    100.90857377    111.16904493    140.42498250
34     1      18          0.10086582    102.38158319    187.47785045    139.51638894
35     1      18          0.08356582    102.89211744    188.71108040    140.55935600
36     1      18          0.04836582    100.97458693    180.05625888    126.83057169
37     1      18          0.04846582    100.83561349    181.66348916    127.22825048
38     1      15          0.03026582    178.08623821    179.36632449    128.43921529
39     1      15          0.02646582    100.33701422    180.46571666    129.20048473
40     1      19          0.40866582    176.85511726    181.46269358    127.81327434
41     1      3          -0.02183418    104.10447822    187.07272653    146.18547497
42     1      7           0.45106582    104.96623714    187.01595988    145.57342677
43     1      8          -0.37363418    105.01397435    186.10997742    144.77007381
44     1      9          -0.09443418    105.94053576    187.88467580    145.87185866
45     1      10         -0.18483418    107.07608684    187.74690712    145.12012999
46     1      11          0.04576582    108.06460985    188.76101094    145.58634671
47     1      12         -0.18963418    108.97022272    188.54434799    145.15135619
48     1      12         -0.44683418    124.44330829    114.08115022    145.64585051
49     1      11          0.04196582    124.78641918    114.80311341    145.01122626
50     1      13          0.25146582    123.58133496    115.02673978    144.07307037
51     1      14         -0.65693418    123.83124143    115.74338124    142.84669271
52     1      17          0.13416582    107.61169796    186.85219284    145.03471936
53     1      17          0.13356582    106.82252531    188.02581438    144.12705179
54     1      18          0.10086582    108.13122903    188.80422587    146.67002086
55     1      18          0.08356582    107.61169104    110.95980252    145.34648916
56     1      18          0.04836582    125.21737373    115.66840257    145.41403552
57     1      18          0.04846582    125.45223096    114.14696051    144.38932930
58     1      15          0.03026582    123.02967722    114.10613394    143.73331042
59     1      15          0.02646582    122.90474031    115.69206745    144.58795708
60     1      19          0.40866582    124.28833809    116.48363342    143.18269284
61     1      3          -0.02183418    102.11848843    113.78937390    147.33748902
62     1      7           0.45106582    102.35054399    114.76140830    147.87414299
63     1      8          -0.37363418    102.55490456    115.81276005    147.30483760
64     1      9          -0.09443418    102.06952897    114.58987536    149.20524588
65     1      10         -0.18483418    101.97497129    115.67070997    150.14278222
66     1      11          0.04576582    103.26714685    115.92428230    150.83311175
67     1      12         -0.18963418    104.03640959    116.18978523    150.20563001
68     1      12         -0.44683418    108.63216901    134.38278317    153.64763627
69     1      11          0.04196582    109.23677726    135.01796011    154.12779300
70     1      13          0.25146582    108.41797598    136.31151050    154.09118597
71     1      14         -0.65693418    107.22360065    135.89334365    154.58553560
72     1      17          0.13416582    101.50321845    116.52361840    149.71632967
73     1      17          0.13356582    101.28957984    115.26242806    150.81785741
74     1      18          0.10086582    103.58748125    114.97462236    151.25782893
75     1      18          0.08356582    103.07622982    116.58478076    151.68695527
76     1      18          0.04836582    109.44964837    134.54182723    155.05765520
77     1      18          0.04846582    110.20788235    135.05829128    153.67388288
78     1      15          0.03026582    108.89644709    136.80336398    154.90613879
79     1      15          0.02646582    108.60336158    136.95314815    153.19744696
80     1      19          0.40866582    106.94557436    135.17018169    154.04646438
81     1      3          -0.02183418    104.78215015    113.15901837    142.27289808
82     1      7           0.45106582    105.02004706    113.99226342    141.61352225
83     1      8          -0.37363418    105.32640582    113.89726678    140.42859569
84     1      9          -0.09443418    104.47785573    115.06254170    142.19002347
85     1      10         -0.18483418    104.34050789    116.18238256    141.43333676
86     1      11          0.04576582    103.33392651    117.08667557    142.25635828
87     1      12         -0.18963418    103.65521087    117.29487176    143.23849053
88     1      12         -0.44683418    176.40598104    114.36322979    136.47031593
89     1      11          0.04196582    176.19861504    115.33067753    136.22198999
90     1      13          0.25146582    175.96472607    116.09660116    137.48319042
91     1      14         -0.65693418    174.97293164    115.38518671    138.09360482
92     1      17          0.13416582    105.40388666    116.51098399    141.29532810
93     1      17          0.13356582    103.87079838    116.00858505    140.37873705
94     1      18          0.10086582    102.42167260    116.47868056    142.36995843
95     1      18          0.08356582    103.03406566    117.97629352    141.75424870
96     1      18          0.04836582    177.03928052    115.77450270    135.73128187
97     1      18          0.04846582    175.40777818    115.30865782    135.51528231
98     1      15          0.03026582    176.89090808    116.20666532    138.04149287
99     1      15          0.02646582    175.60181467    117.10766676    137.30629147
100    1      19          0.40866582    175.30955859    114.46487811    137.96677102
101    1      3          -0.02183418    107.54806937    114.22614890    145.90054048
102    1      7           0.45106582    108.56658208    113.92628507    146.13145037
103    1      8          -0.37363418    108.68482255    112.87551414    146.77883582
104    1      9          -0.09443418    109.56429542    114.74910547    145.69505219
105    1      10         -0.18483418    110.89968359    114.43212095    145.95806616
106    1      11          0.04576582    111.69743785    114.52390914    144.58916016
107    1      12         -0.18963418    111.08564203    113.88470607    144.06926657
108    1      12         -0.44683418    117.30137309    182.58572521    136.23030886
109    1      11          0.04196582    116.75104382    181.75100224    136.15934188
110    1      13          0.25146582    116.11431540    181.52314873    137.49152340
111    1      14         -0.65693418    117.15285681    181.63833150    138.43549909
112    1      17          0.13416582    111.33358481    115.07395553    146.68908018
113    1      17          0.13356582    110.92552031    113.45361773    146.48800429
114    1      18          0.10086582    112.71166794    113.99397974    144.66140649
115    1      18          0.08356582    111.72789351    115.55613936    144.29748017
116    1      18          0.04836582    115.87210254    181.82116143    135.46621146
117    1      18          0.04846582    117.42461720    180.95089270    135.98101822
118    1      15          0.03026582    115.28501856    182.26931802    137.57610244
119    1      15          0.02646582    115.73484201    180.53255618    137.53669514
120    1      19          0.40866582    117.47394846    182.51237743    138.23122308
121    1      3          -0.02183418    107.71421029    119.45478455    146.83006956
122    1      7           0.45106582    108.78370382    119.55545962    147.22142497
123    1      8          -0.37363418    109.13233360    120.38827691    147.96344820
124    1      9          -0.09443418    109.61004230    118.61005121    146.70731135
125    1      10         -0.18483418    110.98443774    118.60794745    146.93603468
126    1      11          0.04576582    111.79155263    119.67686555    146.23117343
127    1      12         -0.18963418    112.78181255    119.56508902    146.46762701
128    1      12         -0.44683418    120.50517634    120.37836108    151.64745274
129    1      11          0.04196582    120.52283204    119.69233820    152.41372081
130    1      13          0.25146582    121.33208133    118.37831521    152.14658007
131    1      14         -0.65693418    121.48418795    117.59128966    153.27670163
132    1      17          0.13416582    111.05110487    118.76468667    147.99665326
133    1      17          0.13356582    111.44842165    117.66308114    146.75597020
134    1      18          0.10086582    111.44827263    120.65123936    146.49286365
135    1      18          0.08356582    111.52878447    119.59894033    145.20636917
136    1      18          0.04836582    120.82205141    120.18451432    153.33804214
137    1      18          0.04846582    119.48463268    119.39244019    152.75000180
138    1      15          0.03026582    120.88936429    117.87056188    151.19853445
139    1      15          0.02646582    122.33990947    118.63817024    151.88979894
140    1      19          0.40866582    121.81132316    118.09816967    153.99833917
141    1      3          -0.02183418    108.87955467    119.63013686    141.42570724
142    1      7           0.45106582    109.25357575    120.59339289    141.23369460
143    1      8          -0.37363418    110.45161953    120.81057686    141.31025401
144    1      9          -0.09443418    108.32064046    121.47223636    140.76585836
145    1      10         -0.18483418    108.80323840    122.68802656    140.26130080
146    1      11          0.04576582    108.74047905    123.67805026    141.44723327
147    1      12         -0.18963418    109.11996080    124.53959271    141.14090232
148    1      12         -0.44683418    105.00939977    126.82539166    141.34023737
149    1      11          0.04196582    104.83115778    125.80204524    141.54594613
150    1      13          0.25146582    105.00124195    125.47806597    143.06525521
151    1      14         -0.65693418    105.45936683    124.18041790    143.39484822
152    1      17          0.13416582    109.86466217    122.53758641    139.86392313
153    1      17          0.13356582    108.17007284    122.93774495    139.39998997
154    1      18          0.10086582    109.38829930    123.29127673    142.19131966
155    1      18          0.08356582    107.76101099    123.78522160    141.89600482
156    1      18          0.04836582    103.78972283    125.64342836    141.34675436
157    1      18          0.04846582    105.43717980    125.17433140    140.90768449
158    1      15          0.03026582    105.61363638    126.14651503    143.68420837
159    1      15          0.02646582    103.98059711    125.41628885    143.44273028
160    1      19          0.40866582    105.34385337    124.16427839    144.30952525
161    1      3          -0.02183418    113.08261799    116.91293439    141.40682178
162    1      7           0.45106582    113.52523348    115.96017622    140.97164046
163    1      8          -0.37363418    113.78859936    115.00860898    141.77214327
164    1      9          -0.09443418    113.63811286    116.01394979    139.70628524
165    1      10         -0.18483418    114.37136888    114.99236644    139.02234571
166    1      11          0.04576582    113.79597605    114.77412833    137.60414697
167    1      12         -0.18963418    112.90744086    114.34012697    137.77239891
168    1      12         -0.44683418    100.75096400    187.41708889    124.44365720
169    1      11          0.04196582    100.40816996    186.90996683    123.62038161
170    1      13          0.25146582    100.53647963    187.64514439    122.24759869
171    1      14         -0.65693418     99.72996078    188.82850404    122.33013702
172    1      17          0.13416582    115.48461313    115.07686158    139.02034431
173    1      17          0.13356582    114.25220496    113.96955275    139.37773673
174    1      18          0.10086582    114.56037652    114.21541965    137.07126580
175    1      18          0.08356582    113.70002033    115.70734726    137.10344655
176    1      18          0.04836582    100.91433717    185.95180732    123.57526390
177    1      18          0.04846582    178.06642693    186.64850950    123.75279706
178    1      15          0.03026582    101.54531821    187.94486972    121.90835957
179    1      15          0.02646582    100.05591300    187.03056805    121.49653579
180    1      19          0.40866582    100.11023523    110.65281116    122.99265570
181    1      3          -0.02183418    116.53738345    121.00575862    140.34680836
182    1      7           0.45106582    117.40903958    120.71363352    139.75539744
183    1      8          -0.37363418    118.00810585    121.54019536    138.99617656
184    1      9          -0.09443418    117.93391138    119.53872635    140.19896769
185    1      10         -0.18483418    119.02954675    119.14186779    139.46929488
186    1      11          0.04576582    119.64596651    117.81014192    139.70997273
187    1      12         -0.18963418    119.50132032    117.28035601    138.87688553
188    1      12         -0.44683418    132.19982802    119.74856690    151.00770509
189    1      11          0.04196582    131.75413870    118.84206312    151.16806496
190    1      13          0.25146582    130.50303855    118.77878418    151.94479270
191    1      14         -0.65693418    130.24590029    117.44625305    152.34930160
192    1      17          0.13416582    118.80291109    119.28769931    138.40549431
193    1      17          0.13356582    119.85844681    119.82529024    139.66439344
194    1      18          0.10086582    119.25615263    117.39933984    140.64379865
195    1      18          0.08356582    120.66573450    117.80127097    139.82589248
196    1      18          0.04836582    131.61498138    118.39996671    150.15238392
197    1      18          0.04846582    132.44144755    118.42118024    151.91243618
198    1      15          0.03026582    130.55662294    119.43934618    152.71912397
199    1      15          0.02646582    129.76109188    119.22260978    151.27939031
200    1      19          0.40866582    130.84958885    116.94947108    152.92649492
201    1      3          -0.02183418    111.77775814    120.37061601    137.31183992
202    1      7           0.45106582    110.92753748    120.83018822    136.74989183
203    1      8          -0.37363418    109.92825545    121.25537996    137.36303726
204    1      9          -0.09443418    111.09347537    120.96472184    135.41156645
205    1      10         -0.18483418    110.18291639    121.70030803    134.62322387
206    1      11          0.04576582    110.87432430    122.98934616    134.20590251
207    1      12         -0.18963418    111.25853740    123.36580954    135.08932706
208    1      12         -0.44683418    111.98156757    138.21602707    148.86415234
209    1      11          0.04196582    112.34227274    138.68134087    148.01313190
210    1      13          0.25146582    111.61954873    138.15670662    146.77722598
211    1      14         -0.65693418    110.30625244    138.15660874    147.09299392
212    1      17          0.13416582    109.72501100    121.21899184    133.77806122
213    1      17          0.13356582    109.30223178    121.99410569    135.21032976
214    1      18          0.10086582    110.20850785    123.66164446    133.74977162
215    1      18          0.08356582    111.66666599    122.66845842    133.51587405
216    1      18          0.04836582    112.19718088    139.72030024    148.20990092
217    1      18          0.04846582    113.38792119    138.46316804    147.82208650
218    1      15          0.03026582    111.91981079    138.61216473    145.83953011
219    1      15          0.02646582    111.88716348    137.11780571    146.64681099
220    1      19          0.40866582    110.34502920    137.96147403    148.09879270
221    1      3          -0.02183418    115.14256582    117.44099889    134.34801076
222    1      7           0.45106582    114.82183886    117.24247294    133.31553825
223    1      8          -0.37363418    115.53053905    117.47600025    132.35183488
224    1      9          -0.09443418    113.51913494    116.79172950    133.25528957
225    1      10         -0.18483418    112.74008367    116.88144402    132.06015288
226    1      11          0.04576582    112.06357319    118.27430902    132.03373576
227    1      12         -0.18963418    112.80068366    118.97803140    131.90768228
228    1      12         -0.44683418    178.77257134    118.02825693    123.74608290
229    1      11          0.04196582    178.02588574    117.99261275    124.48395848
230    1      13          0.25146582     99.88624422    117.18332567    125.61958118
231    1      14         -0.65693418    101.22681483    117.69036985    125.80410947
232    1      17          0.13416582    113.32114743    116.76479705    131.17955719
233    1      17          0.13356582    112.01205206    116.08435050    132.10533556
234    1      18          0.10086582    111.60504095    118.65950013    132.93201050
235    1      18          0.08356582    111.29275860    118.27976248    131.24742606
236    1      18          0.04836582    177.61448912    118.90245128    124.74909843
237    1      18          0.04846582    177.16368895    117.59884893    123.97561428
238    1      15          0.03026582    178.04844130    116.99131716    126.54387679
239    1      15          0.02646582     99.92571296    116.19258478    125.19514125
240    1      19          0.40866582    101.54789161    117.70011642    124.93897781
241    1      3          -0.02183418    120.16349127    119.43822993    134.69570219
242    1      7           0.45106582    120.79022122    119.62531026    133.82522151
243    1      8          -0.37363418    120.96095699    120.82113844    133.43145984
244    1      9          -0.09443418    121.31308668    118.49117212    133.28620348
245    1      10         -0.18483418    121.91913008    118.47022712    132.04616979
246    1      11          0.04576582    121.14611032    117.38400091    131.08287764
247    1      12         -0.18963418    121.22607937    116.49839632    131.52491789
248    1      12         -0.44683418    132.37047427    113.73978829    137.74667753
249    1      11          0.04196582    133.15133383    113.29944112    137.26314093
250    1      13          0.25146582    134.21580965    114.37933876    137.03258362
251    1      14         -0.65693418    135.44858661    113.95729767    136.57501593
252    1      17          0.13416582    121.91963984    119.44298414    131.59974749
253    1      17          0.13356582    122.98250189    118.33153454    132.17390373
254    1      18          0.10086582    121.67800060    117.35845860    130.09715243
255    1      18          0.08356582    120.07459972    117.58957406    130.96020797
256    1      18          0.04836582    133.71929680    112.55592222    137.78951745
257    1      18          0.04846582    132.84438581    112.96849102    136.29641204
258    1      15          0.03026582    133.89278417    115.08374186    136.20890580
259    1      15          0.02646582    134.23945879    115.08482844    137.89797432
260    1      19          0.40866582    136.12644314    114.59485490    136.86645923
261    1      3          -0.02183418    117.12722298    123.93176866    135.11568754
262    1      7           0.45106582    117.74588194    124.80925415    135.40867226
263    1      8          -0.37363418    118.42380406    125.40446424    134.54933740
264    1      9          -0.09443418    117.77015970    125.17291060    136.74677018
265    1      10         -0.18483418    118.61796105    126.21060622    137.09483382
266    1      11          0.04576582    119.85500915    125.67897561    137.70212098
267    1      12         -0.18963418    120.53364572    126.43862875    137.49427021
268    1      12         -0.44683418    112.16956406    130.87121322    152.63313613
269    1      11          0.04196582    112.64223952    130.79494151    153.47914815
270    1      13          0.25146582    112.21909348    129.49544688    154.20493843
271    1      14         -0.65693418    113.12601874    129.34922492    155.31948006
272    1      17          0.13416582    118.67557016    126.77833466    136.16788956
273    1      17          0.13356582    118.11771380    126.85969540    137.64648579
274    1      18          0.10086582    120.20945483    124.77617314    137.13745362
275    1      18          0.08356582    119.72175521    125.42314030    138.76038720
276    1      18          0.04836582    113.67495850    130.81424923    153.28576116
277    1      18          0.04846582    112.46154269    131.54744167    154.24633145
278    1      15          0.03026582    111.12725471    129.56284399    154.57712068
279    1      15          0.02646582    112.27995460    128.75952623    153.35237220
280    1      19          0.40866582    113.99026324    129.74362476    155.22801356
281    1      3          -0.02183418    114.66007944    124.35710431    130.46759944
282    1      7           0.45106582    113.65760798    124.78576309    130.61020737
283    1      8          -0.37363418    112.84441384    124.34545570    131.40082109
284    1      9          -0.09443418    113.32115908    125.62071719    129.60221049
285    1      10         -0.18483418    112.25986706    126.51570506    129.76857338
286    1      11          0.04576582    112.70502415    127.94211323    129.73449946
287    1      12         -0.18963418    113.46250628    128.10474116    130.37714320
288    1      12         -0.44683418    102.99483256    128.68328222    126.31550752
289    1      11          0.04196582    103.07782210    129.30013026    125.53786789
290    1      13          0.25146582    104.53338766    129.42860396    125.22929199
291    1      14         -0.65693418    105.25631360    129.37290440    126.38904973
292    1      17          0.13416582    111.39245063    126.25363192    129.13560570
293    1      17          0.13356582    111.86495485    126.39827960    130.77512988
294    1      18          0.10086582    111.77225108    128.49581188    129.91188008
295    1      18          0.08356582    112.94194235    128.19204023    128.70367572
296    1      18          0.04836582    102.55527523    128.92333569    124.59873536
297    1      18          0.04846582    102.64005442    130.29941287    125.62558441
298    1      15          0.03026582    104.83063863    128.64518363    124.44874357
299    1      15          0.02646582    104.71030681    130.36478501    124.64304036
300    1      19          0.40866582    104.92251351    128.58614174    126.89270494
301    1      3          -0.02183418    118.28861972    121.62840838    130.45258480
302    1      7           0.45106582    118.14940934    120.55186206    130.65137941
303    1      8          -0.37363418    118.84675375    119.94463914    131.47688659
304    1      9          -0.09443418    117.19464769    120.00294892    129.89522064
305    1      10         -0.18483418    117.09226433    118.61170101    129.85283172
306    1      11          0.04576582    117.91538762    118.06175968    128.70119644
307    1      12         -0.18963418    117.56565611    117.17812828    128.32883676
308    1      12         -0.44683418    124.49358863    182.21853198    127.47783122
309    1      11          0.04196582    124.48269578    181.38000576    128.03492587
310    1      13          0.25146582    125.97181907    180.92691308    128.10239570
311    1      14         -0.65693418    126.47568662    180.54989297    126.86631588